1000
 Atoms. Timestep: 100000
1 28.9367 13.104 0
1 37.832 29.6658 0
1 5.13972 51.3986 0
1 16.6228 5.80383 0
1 25.7943 92.4659 0
1 88.3663 55.9872 0
1 91.5753 20.4274 0
1 65.1443 2.05522 0
1 90.8602 19.5722 0
1 44.8816 78.2986 0
1 1.64203 87.1356 0
1 34.629 89.3879 0
1 78.2797 24.3568 0
1 23.8264 50.0681 0
1 35.2615 8.15671 0
1 11.3855 60.1207 0
1 27.6105 27.2639 0
1 18.9609 54.2458 0
1 18.0134 68.8476 0
1 20.5363 8.87706 0
1 78.9152 94.1464 0
1 94.4269 22.3498 0
1 91.1073 44.3817 0
1 66.9535 21.7271 0
1 86.234 40.0611 0
1 38.5078 65.1191 0
1 71.872 4.69964 0
1 43.9278 84.6113 0
1 58.1258 84.9353 0
1 32.8965 4.28928 0
1 44.1011 25.9789 0
1 0.319273 65.3089 0
1 27.9672 90.9452 0
1 95.2724 47.6005 0
1 59.5948 81.1458 0
1 71.2007 36.8102 0
1 48.6972 53.2903 0
1 25.0534 61.3845 0
1 69.8928 25.8261 0
1 15.7553 66.2108 0
1 20.3677 60.564 0
1 37.5888 2.11687 0
1 8.19894 3.82631 0
1 91.4103 58.8255 0
1 72.536 17.2567 0
1 36.5556 53.1219 0
1 6.7828 1.7447 0
1 15.5599 14.9152 0
1 35.0577 69.6483 0
1 51.8932 90.4156 0
1 6.82597 78.5608 0
1 85.8184 27.1205 0
1 96.6487 71.2901 0
1 44.8661 4.65922 0
1 1.82193 36.2593 0
1 70.1392 21.3898 0
1 70.0301 66.2018 0
1 6.91718 22.8786 0
1 54.1853 97.0165 0
1 30.5248 61.7562 0
1 71.4447 35.4592 0
1 57.6323 68.6133 0
1 68.422 93.2533 0
1 48.301 11.5349 0
1 4.03022 76.5574 0
1 64.5235 27.9553 0
1 29.8184 17.7198 0
1 5.36438 15.3083 0
1 59.312 4.99722 0
1 39.0395 12.8905 0
1 96.827 73.288 0
1 0.973877 46.6856 0
1 63.929 72.5261 0
1 42.1839 28.8098 0
1 37.7349 64.0575 0
1 87.5128 1.79405 0
1 88.0689 90.3379 0
1 19.2091 98.1066 0
1 73.0043 75.4598 0
1 83.6896 36.1548 0
1 95.306 86.38 0
1 97.745 78.0733 0
1 78.1967 78.3549 0
1 58.8949 45.9755 0
1 96.8387 38.0448 0
1 61.9377 19.7816 0
1 57.1129 53.6612 0
1 71.6854 30.9143 0
1 72.5599 84.3086 0
1 19.7434 64.3811 0
1 93.4533 53.4722 0
1 67.0114 17.6949 0
1 2.07489 69.1223 0
1 28.5228 66.004 0
1 27.3541 64.1898 0
1 79.106 12.0512 0
1 41.5907 34.0862 0
1 74.3239 68.8854 0
1 97.5479 47.2716 0
1 98.948 88.7435 0
1 38.3366 91.0157 0
1 55.7874 93.2253 0
1 71.9421 5.87458 0
1 47.5479 50.5016 0
1 74.2423 83.653 0
1 61.4176 95.5801 0
1 82.8684 39.5508 0
1 31.9654 37.3447 0
1 31.2988 54.0894 0
1 44.1829 34.4011 0
1 70.5347 49.8415 0
1 22.3508 60.6161 0
1 71.2515 71.5142 0
1 44.0214 7.78094 0
1 32.737 97.7381 0
1 29.7624 82.0087 0
1 9.68925 5.24693 0
1 96.4432 7.53706 0
1 52.0167 46.8478 0
1 25.2099 89.8437 0
1 53.1915 84.6297 0
1 66.8683 74.8165 0
1 25.0607 53.5592 0
1 2.95419 98.9723 0
1 42.3715 17.5511 0
1 65.8217 26.507 0
1 78.2027 75.9791 0
1 40.4247 24.2371 0
1 56.2039 63.8206 0
1 98.4966 99.4635 0
1 74.8097 51.9755 0
1 55.9533 2.4581 0
1 37.8752 34.9931 0
1 89.7423 78.1114 0
1 95.2752 1.90851 0
1 74.663 40.6326 0
1 33.5053 1.3259 0
1 98.5582 42.0512 0
1 17.1589 93.937 0
1 96.3387 94.0492 0
1 2.30179 92.0413 0
1 61.1343 69.0862 0
1 7.92526 55.8764 0
1 39.5252 74.6463 0
1 54.8628 26.9638 0
1 14.4957 6.3043 0
1 52.6157 77.4595 0
1 30.9553 58.4041 0
1 11.4607 54.7561 0
1 2.86891 30.0788 0
1 78.8573 37.4135 0
1 48.8001 68.7001 0
1 40.1426 22.6776 0
1 46.6629 93.1423 0
1 33.2928 25.8545 0
1 92.1747 23.9436 0
1 84.3562 20.0003 0
1 73.0065 33.9679 0
1 31.6906 99.5706 0
1 97.0993 84.8703 0
1 15.6724 42.4311 0
1 13.9558 34.6661 0
1 84.5418 11.6512 0
1 83.8805 63.0848 0
1 19.6091 89.7384 0
1 26.5723 13.2333 0
1 76.0167 26.5442 0
1 22.4256 22.5311 0
1 42.97 60.516 0
1 84.1018 44.0731 0
1 59.6626 35.8551 0
1 4.75898 20.9771 0
1 91.9209 65.4181 0
1 90.5328 26.005 0
1 12.6356 55.8697 0
1 15.4311 51.6478 0
1 10.3406 49.3298 0
1 15.7638 59.1123 0
1 99.9234 0.888246 0
1 49.4097 31.5543 0
1 27.0331 98.6125 0
1 51.0309 56.5178 0
1 9.26611 99.4042 0
1 26.4902 37.7416 0
1 31.9935 77.9368 0
1 68.2924 63.5901 0
1 74.4361 2.1354 0
1 78.7873 8.08372 0
1 85.9746 76.708 0
1 90.3596 11.6645 0
1 53.9952 59.8157 0
1 77.1494 69.7556 0
1 35.7778 50.9957 0
1 72.5501 91.2123 0
1 28.0843 30.9318 0
1 14.9597 18.4655 0
1 12.3662 80.0727 0
1 50.8483 79.4955 0
1 1.43197 63.7707 0
1 63.7501 0.512991 0
1 67.6407 92.4356 0
1 91.5895 85.0586 0
1 41.4063 81.7361 0
1 62.0243 61.0003 0
1 10.7536 80.5046 0
1 85.5731 44.6318 0
1 34.0417 13.4243 0
1 98.8831 23.7533 0
1 81.4707 69.135 0
1 21.9339 12.8808 0
1 98.8901 29.1226 0
1 88.1636 52.687 0
1 92.1381 57.5585 0
1 22.8591 69.0603 0
1 4.81737 53.5386 0
1 76.3011 23.1004 0
1 91.1095 93.5881 0
1 26.03 21.8275 0
1 1.82965 5.26142 0
1 48.0442 47.2136 0
1 5.01984 36.4635 0
1 66.4546 96.5715 0
1 5.6266 17.5557 0
1 81.5298 14.3801 0
1 72.8431 8.36875 0
1 10.4456 67.9187 0
1 28.1327 33.2479 0
1 28.6838 87.4161 0
1 76.1234 63.8305 0
1 68.4562 16.2871 0
1 22.014 41.4003 0
1 8.30608 62.9355 0
1 87.878 58.0804 0
1 39.5008 51.1583 0
1 10.4251 0.489733 0
1 81.0509 72.3065 0
1 53.1262 53.4143 0
1 72.5287 12.5483 0
1 38.4051 43.09 0
1 16.9103 48.638 0
1 10.6393 24.6911 0
1 6.7088 42.737 0
1 54.5449 66.7267 0
1 27.3083 75.6887 0
1 45.6977 98.7267 0
1 96.454 16.0039 0
1 82.2822 62.6682 0
1 49.5328 87.8389 0
1 86.9332 83.8495 0
1 11.8757 69.5153 0
1 85.7339 97.0957 0
1 89.1653 92.9099 0
1 35.1188 0.589877 0
1 5.30766 57.1235 0
1 70.9777 19.108 0
1 71.5671 88.9152 0
1 81.7764 12.2564 0
1 86.1501 86.5344 0
1 5.6094 63.6768 0
1 46.0852 25.0843 0
1 94.0776 90.0171 0
1 89.2407 72.8669 0
1 59.7179 77.8865 0
1 4.69638 82.7574 0
1 51.2906 76.2325 0
1 54.3255 56.8198 0
1 25.5577 20.4902 0
1 53.2428 38.0172 0
1 92.0026 78.8082 0
1 51.8713 36.7152 0
1 78.0201 96.9228 0
1 64.7686 6.72854 0
1 2.65153 37.9425 0
1 1.35451 74.8206 0
1 13.9743 90.6618 0
1 33.0914 74.379 0
1 92.1271 33.7536 0
1 67.6072 64.4866 0
1 25.0871 34.6046 0
1 24.55 99.3484 0
1 32.2038 55.5293 0
1 20.544 94.8329 0
1 16.1768 13.0127 0
1 63.1769 86.8955 0
1 74.6436 76.818 0
1 90.6345 99.77 0
1 49.3653 55.3482 0
1 12.1889 4.47497 0
1 41.3038 87.277 0
1 47.9991 37.7013 0
1 12.3058 91.7426 0
1 44.966 27.2591 0
1 75.5776 2.8149 0
1 36.1796 58.5267 0
1 13.5158 48.4384 0
1 23.8276 84.2608 0
1 40.9963 95.8673 0
1 89.0904 84.0265 0
1 77.5717 13.7418 0
1 50.882 61.3521 0
1 72.6381 32.7681 0
1 46.1965 49.616 0
1 52.6214 80.3111 0
1 46.1249 63.1 0
1 26.0492 28.0399 0
1 29.2381 54.9087 0
1 24.7274 78.884 0
1 6.33533 74.4127 0
1 54.2061 75.2277 0
1 79.3748 35.266 0
1 59.6851 15.7038 0
1 56.5886 84.2808 0
1 32.2411 30.5266 0
1 72.6746 63.6033 0
1 16.4669 94.9096 0
1 33.6323 34.1546 0
1 93.5525 44.6258 0
1 4.964 95.3417 0
1 18.0735 22.7231 0
1 48.0429 17.5877 0
1 99.3324 11.824 0
1 3.85146 5.07936 0
1 78.0809 48.4677 0
1 82.9598 10.4921 0
1 70.3724 48.4494 0
1 96.0523 89.8248 0
1 8.02645 19.2221 0
1 73.9433 78.5071 0
1 12.987 23.6079 0
1 43.4358 10.6967 0
1 20.8506 21.6127 0
1 31.8145 34.9665 0
1 1.44892 22.1212 0
1 66.5042 1.46351 0
1 72.3908 60.9283 0
1 31.5902 18.3164 0
1 36.741 94.1511 0
1 72.2552 1.8911 0
1 64.4581 38.6444 0
1 32.598 81.3323 0
1 0.648572 24.6029 0
1 39.7522 40.1317 0
1 87.2804 15.5986 0
1 10.9835 66.4726 0
1 80.6024 34.112 0
1 11.3386 78.9476 0
1 90.8518 48.2395 0
1 11.297 35.2225 0
1 18.9863 20.5114 0
1 66.8181 39.2281 0
1 77.2789 1.31928 0
1 18.3966 65.4326 0
1 56.4787 42.5603 0
1 52.0949 26.6966 0
1 0.196868 98.3858 0
1 41.7112 39.0098 0
1 13.9845 3.793 0
1 84.2735 74.4969 0
1 55.1248 18.7512 0
1 40.1709 78.4367 0
1 17.6984 24.5863 0
1 71.8049 74.449 0
1 85.0184 7.51965 0
1 44.7863 76.0725 0
1 28.9221 10.7749 0
1 94.5538 2.87243 0
1 91.2089 42.8383 0
1 10.2181 93.5302 0
1 76.3761 95.5713 0
1 32.3174 5.94757 0
1 56.624 25.7181 0
1 83.4283 27.3231 0
1 95.0551 21.3211 0
1 34.9854 32.2605 0
1 65.1509 9.34696 0
1 35.9357 32.0353 0
1 9.13998 63.7025 0
1 24.7096 60.3906 0
1 81.7323 1.29269 0
1 54.3652 39.449 0
1 41.1239 76.6734 0
1 38.4065 66.5775 0
1 91.5962 56.3868 0
1 45.0358 63.209 0
1 91.3458 34.7385 0
1 53.5626 61.1291 0
1 22.1144 95.3845 0
1 70.8446 82.3481 0
1 70.8516 92.6597 0
1 63.52 23.5203 0
1 58.3163 52.8709 0
1 27.6612 84.353 0
1 81.8493 57.4968 0
1 69.2674 1.59275 0
1 20.2865 26.9862 0
1 21.6433 43.6136 0
1 5.04459 98.3628 0
1 95.8149 28.8863 0
1 34.2377 66.6765 0
1 45.0903 1.33956 0
1 89.0409 97.1748 0
1 51.393 21.1583 0
1 32.9977 69.9201 0
1 47.1437 38.6888 0
1 39.996 72.0154 0
1 25.2714 87.4673 0
1 89.491 46.2454 0
1 64.5085 11.9817 0
1 67.7997 8.3494 0
1 17.8535 5.57517 0
1 55.4177 37.8252 0
1 8.42338 92.2132 0
1 67.8597 12.8093 0
1 15.7564 94.1273 0
1 57.2716 77.4961 0
1 99.7387 45.7948 0
1 19.1559 43.9548 0
1 62.3263 38.066 0
1 13.0018 98.7991 0
1 3.54807 80.6308 0
1 26.9267 30.8271 0
1 39.0911 69.3411 0
1 95.4417 72.4049 0
1 79.0463 64.8204 0
1 78.561 21.3472 0
1 7.68569 15.8599 0
1 95.8484 76.6789 0
1 12.8002 57.6139 0
1 13.128 12.2914 0
1 42.6647 85.72 0
1 59.2377 86.7538 0
1 16.364 64.9514 0
1 87.5504 40.8782 0
1 51.9941 79.1223 0
1 85.5006 75.439 0
1 11.674 64.0887 0
1 53.903 88.4765 0
1 2.87602 4.22837 0
1 30.2361 49.0621 0
1 15.6287 9.81124 0
1 92.184 74.3998 0
1 71.3915 21.3856 0
1 39.6811 95.2283 0
1 5.78017 5.53805 0
1 1.25017 55.9076 0
1 76.2408 55.1574 0
1 27.3323 72.0162 0
1 41.7178 66.8417 0
1 5.37728 61.8051 0
1 1.77778 3.8165 0
1 61.7116 87.9823 0
1 86.5663 28.8019 0
1 92.9151 60.7774 0
1 83.0479 58.6137 0
1 56.2374 99.7178 0
1 53.3747 25.2532 0
1 29.3663 89.2537 0
1 61.0697 84.533 0
1 7.40548 80.0254 0
1 91.0511 13.2624 0
1 74.3827 56.4263 0
1 26.8189 54.4011 0
1 49.2405 10.8041 0
1 63.1985 80.9752 0
1 27.2108 34.3466 0
1 43.4346 66.7678 0
1 64.8121 14.8301 0
1 11.8498 6.47413 0
1 16.2581 75.0412 0
1 14.813 70.7942 0
1 64.0199 39.5854 0
1 38.4282 49.967 0
1 17.7252 95.6444 0
1 31.9873 50.4003 0
1 81.5166 65.0961 0
1 36.9372 15.9814 0
1 69.1546 41.4574 0
1 45.3727 15.9821 0
1 71.8431 82.9845 0
1 38.8234 3.62869 0
1 16.1276 55.2278 0
1 83.6768 28.5572 0
1 16.1158 99.1017 0
1 1.01048 68.1119 0
1 91.155 49.4049 0
1 66.9157 90.6842 0
1 60.7946 24.6062 0
1 44.945 8.40714 0
1 2.49941 85.2839 0
1 78.5415 45.8206 0
1 67.8162 74.0157 0
1 77.18 89.9378 0
1 98.406 18.3624 0
1 32.5696 44.0008 0
1 8.03553 77.2563 0
1 91.1436 28.5635 0
1 43.1577 76.0741 0
1 93.2766 0.385172 0
1 4.05336 75.1927 0
1 16.4886 89.6594 0
1 98.7276 54.3368 0
1 29.5921 84.6828 0
1 80.5425 4.17263 0
1 57.8962 58.9306 0
1 7.29483 21.4302 0
1 6.73705 45.3761 0
1 36.4406 81.2435 0
1 27.0858 78.3802 0
1 82.5457 3.07087 0
1 75.1473 48.0209 0
1 69.6587 92.3236 0
1 52.5599 23.2054 0
1 5.54333 73.0904 0
1 56.3017 78.4268 0
1 55.7644 65.1246 0
1 34.3261 38.723 0
1 62.6094 31.4769 0
1 57.5017 67.2362 0
1 93.7941 40.9421 0
1 63.2858 32.4088 0
1 69.5369 11.8221 0
1 55.2377 84.5646 0
1 28.7656 0.369711 0
1 5.7788 99.6335 0
1 87.9657 37.4466 0
1 7.79176 6.53548 0
1 21.2224 70.5128 0
1 63.9454 82.6914 0
1 18.983 10.2567 0
1 66.7486 47.9065 0
1 45.6851 74.8308 0
1 23.2852 35.3656 0
1 64.3254 3.83555 0
1 67.5489 34.9323 0
1 82.4389 37.5377 0
1 0.994649 71.869 0
1 43.5397 74.9719 0
1 44.5727 98.0677 0
1 15.004 36.2711 0
1 55.2643 69.0726 0
1 74.9927 60.0424 0
1 87.472 5.53079 0
1 5.71188 20.1693 0
1 9.25089 1.03549 0
1 50.0623 47.5221 0
1 38.7934 38.888 0
1 94.709 44.7499 0
1 97.489 91.9762 0
1 67.6922 66.2861 0
1 19.4577 29.9267 0
1 77.982 50.0472 0
1 58.2227 57.2914 0
1 95.7331 99.155 0
1 81.2546 86.741 0
1 82.3849 41.6153 0
1 0.94223 80.4774 0
1 13.1996 11.0854 0
1 94.0042 88.0254 0
1 99.6567 74.2888 0
1 96.3666 62.624 0
1 23.4424 52.0855 0
1 5.89722 9.14572 0
1 16.3143 76.7701 0
1 21.1992 35.3744 0
1 53.6213 33.1372 0
1 42.3317 70.62 0
1 66.6648 5.52262 0
1 37.2442 44.0721 0
1 2.87497 68.2867 0
1 37.3129 60.9292 0
1 3.14241 13.0377 0
1 91.302 37.6516 0
1 17.6016 13.7359 0
1 93.1261 86.7905 0
1 74.1701 90.4368 0
1 9.21164 62.2276 0
1 80.5382 23.9084 0
1 86.9419 46.4327 0
1 29.4686 77.2283 0
1 95.0267 4.44888 0
1 28.3049 9.1275 0
1 93.46 63.8337 0
1 45.2233 30.0643 0
1 10.9358 12.4085 0
1 24.4859 69.7252 0
1 57.6908 91.2719 0
1 71.941 29.8805 0
1 10.0558 33.0404 0
1 21.6525 79.1723 0
1 65.7446 87.244 0
1 58.3683 11.9715 0
1 28.0865 37.0187 0
1 73.0068 86.0648 0
1 50.4732 46.1716 0
1 99.1573 72.1203 0
1 56.9671 81.8829 0
1 33.4767 21.3806 0
1 47.8394 58.6515 0
1 61.3671 42.2861 0
1 37.3771 32.9119 0
1 80.6323 74.2795 0
1 48.13 45.3631 0
1 81.2015 29.2688 0
1 57.6783 20.5459 0
1 74.8598 47.0514 0
1 69.6496 42.4694 0
1 18.8825 32.6506 0
1 32.6763 83.8698 0
1 6.69279 41.1137 0
1 62.7251 21.2079 0
1 91.3582 51.3951 0
1 51.3914 6.16795 0
1 30.7744 52.5093 0
1 10.9339 38.9352 0
1 3.31476 0.875215 0
1 80.5954 59.7832 0
1 25.3984 55.8315 0
1 16.6529 45.5782 0
1 84.5284 23.5006 0
1 34.9188 10.157 0
1 51.0906 1.18354 0
1 52.6311 15.9545 0
1 66.5393 85.3671 0
1 97.4097 12.9757 0
1 2.68544 74.5357 0
1 80.3421 77.9073 0
1 54.2787 1.91886 0
1 98.9 69.7841 0
1 93.1571 18.7029 0
1 52.4424 68.107 0
1 3.59585 47.9628 0
1 2.39994 79.1626 0
1 89.8774 43.1315 0
1 75.7468 97.3137 0
1 23.5059 23.0688 0
1 45.1197 50.6025 0
1 30.416 59.5014 0
1 61.3421 70.3515 0
1 36.2005 68.4086 0
1 83.572 81.603 0
1 42.3108 80.1943 0
1 81.9139 52.0927 0
1 14.8345 82.9761 0
1 20.682 67.0872 0
1 23.8354 2.79088 0
1 96.0265 75.4085 0
1 80.5494 17.0614 0
1 74.954 81.2379 0
1 78.2901 32.8655 0
1 77.1057 24.9396 0
1 47.7461 93.9536 0
1 25.4203 23.0519 0
1 30.5511 1.81294 0
1 22.4141 90.6594 0
1 35.995 36.647 0
1 32.8993 51.8269 0
1 23.8888 30.7366 0
1 7.08841 32.0796 0
1 64.215 99.5788 0
1 94.816 93.2735 0
1 20.1168 80.3499 0
1 86.011 80.2233 0
1 35.848 93.5959 0
1 12.3742 99.7657 0
1 42.1455 13.3152 0
1 65.3454 97.4627 0
1 19.9802 75.3456 0
1 99.8111 94.0624 0
1 38.2858 36.0045 0
1 26.3782 89.0354 0
1 20.1717 59.0822 0
1 12.7151 75.9772 0
1 28.0515 96.0043 0
1 23.1956 9.40147 0
1 87.0049 17.2766 0
1 99.3467 83.2387 0
1 7.53691 37.4771 0
1 60.0568 23.9468 0
1 38.9041 52.4019 0
1 61.3777 64.6429 0
1 22.7157 18.9852 0
1 26.2206 90.536 0
1 12.8439 15.7649 0
1 60.1666 61.4426 0
1 80.8336 84.22 0
1 20.4216 98.5683 0
1 77.9681 60.6831 0
1 88.0322 43.8656 0
1 10.5712 27.1118 0
1 86.1724 65.3618 0
1 65.5844 74.8412 0
1 79.4913 15.7979 0
1 27.6353 18.292 0
1 13.6849 18.361 0
1 6.53807 39.4907 0
1 26.8251 55.7539 0
1 33.6563 71.4902 0
1 36.8197 13.1137 0
1 62.7113 3.28549 0
1 8.04684 54.0697 0
1 54.7201 46.886 0
1 88.8119 82.3694 0
1 25.1918 5.12992 0
1 13.1065 95.6516 0
1 30.3486 64.011 0
1 12.6701 71.4273 0
1 0.549614 82.6069 0
1 13.1554 46.9465 0
1 16.9582 0.244051 0
1 81.9462 28.4581 0
1 48.7424 75.7248 0
1 89.5431 6.48525 0
1 91.6188 16.3015 0
1 68.4831 68.9574 0
1 37.3292 11.6211 0
1 84.0579 86.8185 0
1 69.502 73.5426 0
1 3.64112 44.762 0
1 88.6085 5.22893 0
1 53.9196 42.016 0
1 97.7999 21.8385 0
1 95.0232 52.4092 0
1 9.11673 83.8 0
1 89.8382 25.1868 0
1 76.9449 68.0122 0
1 74.7468 49.8835 0
1 85.721 21.0066 0
1 86.5675 92.2623 0
1 10.0043 35.1407 0
1 94.2817 97.4924 0
1 24.6557 1.43248 0
1 34.9686 87.5987 0
1 97.5845 61.4267 0
1 14.0171 49.6846 0
1 72.053 76.5662 0
1 26.776 20.643 0
1 36.323 6.6408 0
1 13.1953 69.9599 0
1 76.006 39.3836 0
1 65.1472 18.0018 0
1 17.6949 40.7754 0
1 65.5931 60.8376 0
1 13.2599 25.9295 0
1 88.4906 28.9989 0
1 68.8388 23.1358 0
1 71.2862 80.1626 0
1 34.1978 37.5256 0
1 99.0808 19.412 0
1 71.0708 32.1578 0
1 52.2618 60.6707 0
1 62.8113 79.0386 0
1 13.884 55.1537 0
1 85.2417 89.8739 0
1 15.9648 80.2719 0
1 90.9518 31.6733 0
1 16.7584 18.2158 0
1 0.243211 1.95642 0
1 50.0738 9.33851 0
1 76.7901 2.82368 0
1 1.24844 90.1584 0
1 64.4354 55.2444 0
1 42.4297 31.206 0
1 56.4189 13.5556 0
1 56.5738 45.9649 0
1 16.8889 87.5973 0
1 45.3583 72.8091 0
1 12.3328 25.1558 0
1 48.754 6.09964 0
1 21.972 38.0762 0
1 31.2011 19.2761 0
1 59.2734 6.20899 0
1 18.3706 61.4943 0
1 65.8631 13.1831 0
1 70.2759 44.3563 0
1 60.5182 37.1337 0
1 43.5384 4.82651 0
1 66.8162 52.4456 0
1 79.5724 69.3791 0
1 3.13181 83.6618 0
1 62.9572 77.5136 0
1 61.5326 10.3209 0
1 99.3829 6.84799 0
1 47.8016 27.255 0
1 73.4661 98.8751 0
1 67.8343 19.1727 0
1 81.056 91.5064 0
1 76.8803 74.5273 0
1 67.915 46.251 0
1 64.2356 64.5573 0
1 37.564 52.7135 0
1 98.3861 30.3456 0
1 39.6703 65.6577 0
1 25.9658 10.9632 0
1 46.2254 97.1679 0
1 25.4629 40.6597 0
1 6.97345 26.9462 0
1 44.9385 20.9435 0
1 80.3537 56.9257 0
1 80.9872 8.52198 0
1 29.0165 67.8533 0
1 48.2701 30.2671 0
1 22.6196 6.63922 0
1 86.7864 51.5926 0
1 39.2329 62.1844 0
1 80.6703 53.2463 0
1 58.8374 80.1942 0
1 42.6795 89.7632 0
1 14.5685 75.5059 0
1 13.1859 6.1142 0
1 66.1558 35.8225 0
1 90.675 2.17327 0
1 41.0848 43.8268 0
1 83.7853 67.7171 0
1 38.3391 40.2471 0
1 30.4434 95.6639 0
1 44.4415 43.7806 0
1 10.4268 11.0071 0
1 91.1926 62.8419 0
1 78.4069 42.5804 0
1 50.3185 27.6638 0
1 34.6027 2.53743 0
1 28.9769 49.0606 0
1 53.7322 9.47472 0
1 53.8374 62.4778 0
1 3.44838 52.6541 0
1 33.5743 63.3754 0
1 6.67697 57.5367 0
1 96.3653 53.4131 0
1 89.0717 61.174 0
1 80.3705 79.9152 0
1 67.583 29.9979 0
1 54.7634 71.0662 0
1 78.1077 22.4214 0
1 50.8232 14.1777 0
1 84.878 79.7849 0
1 12.2509 32.7837 0
1 33.7219 98.923 0
1 79.7619 95.548 0
1 93.3454 31.9712 0
1 85.1346 12.9638 0
1 49.391 39.7626 0
1 66.8302 72.9604 0
1 88.2091 46.2706 0
1 42.2585 25.3543 0
1 82.7042 13.2177 0
1 75.4832 27.4599 0
1 88.3922 63.8172 0
1 91.7497 22.863 0
1 95.3121 15.2751 0
1 43.8203 30.615 0
1 47.556 72.3554 0
1 79.8791 43.2548 0
1 10.047 65.5812 0
1 4.35364 69.4064 0
1 0.00913641 95.4958 0
1 21.2716 81.3065 0
1 75.924 13.9055 0
1 13.003 28.5817 0
1 16.5557 73.9116 0
1 30.3027 12.8344 0
1 8.93058 65.9545 0
1 43.1277 48.3224 0
1 25.5991 58.42 0
1 79.0806 66.8046 0
1 18.4753 27.0588 0
1 42.4297 36.9965 0
1 24.7144 9.91839 0
1 73.4147 31.7904 0
1 69.1941 19.6758 0
1 78.5913 40.0861 0
1 22.4675 54.3749 0
1 33.8065 36.2268 0
1 2.52806 11.8504 0
1 60.4598 88.6545 0
1 92.2901 2.9915 0
1 75.8959 37.7722 0
1 12.3874 54.2034 0
1 87.3671 3.21157 0
1 22.2192 49.9798 0
1 85.0458 98.6729 0
1 32.2959 64.771 0
1 59.1618 37.8561 0
1 85.9511 71.6771 0
1 58.2185 75.5123 0
1 99.2996 3.27057 0
1 33.2868 44.8692 0
1 48.2112 54.1921 0
1 45.1485 26.2729 0
1 25.011 84.6601 0
1 55.4639 3.8556 0
1 26.5556 5.32586 0
1 26.469 19.4837 0
1 91.359 61.1624 0
1 53.5627 73.4617 0
1 33.0352 39.5822 0
1 99.2353 66.2765 0
1 23.3379 39.1073 0
1 47.7688 56.3965 0
1 79.2924 23.7969 0
1 40.8011 16.6757 0
1 1.85466 67.1352 0
1 36.3556 97.4954 0
1 45.9774 60.5331 0
1 25.7673 80.8743 0
1 0.187709 48.1737 0
1 67.6562 25.109 0
1 87.5502 41.8697 0
1 98.1489 69.0875 0
1 4.90384 18.4374 0
1 35.2271 83.9551 0
1 87.9944 50.5388 0
1 39.8748 96.9653 0
1 5.47291 70.0358 0
1 59.4848 57.6038 0
1 68.4903 28.2176 0
1 37.1752 28.7032 0
1 4.90787 68.1184 0
1 71.1683 11.2284 0
1 21.2057 77.1716 0
1 9.61756 76.5269 0
1 99.1565 4.77292 0
1 62.9606 51.2482 0
1 42.4222 6.63084 0
1 17.7459 84.7397 0
1 0.973382 27.93 0
1 86.4044 43.5729 0
1 43.479 64.5061 0
1 13.2698 81.5097 0
1 48.212 4.25584 0
1 37.8815 46.0533 0
1 0.866273 62.6471 0
1 3.62553 23.0927 0
1 17.3716 79.9279 0
1 36.4937 31.0467 0
1 6.50648 69.531 0
1 54.7814 79.4815 0
1 74.9717 24.2445 0
1 7.96492 32.6882 0
1 58.4826 66.667 0
1 9.12492 87.4409 0
1 79.7197 91.8129 0
1 37.6205 57.4099 0
1 27.3669 69.2356 0
1 82.9239 7.85268 0
1 68.1793 52.5945 0
1 31.7682 17.0261 0
1 70.6795 2.95398 0
1 14.8072 21.2095 0
1 18.5309 91.9959 0
1 43.3249 70.9934 0
1 86.8778 0.402905 0
1 95.1695 70.6062 0
1 40.1734 69.8772 0
1 34.6172 73.3557 0
1 98.0096 3.95004 0
1 91.4883 68.0705 0
1 87.3716 94.3675 0
1 55.9502 24.3036 0
1 15.463 7.25042 0
1 68.5757 65.5528 0
1 61.4487 33.2606 0
1 84.1666 99.3899 0
1 29.1346 44.5364 0
1 84.2165 96.1857 0
1 0.684048 44.8033 0
1 66.0276 76.9446 0
1 70.9857 58.3613 0
1 27.3159 23.8749 0
1 5.22567 71.4666 0
1 74.3185 19.0607 0
1 68.3891 61.8967 0
1 33.406 3.21032 0
1 63.2161 92.2614 0
1 6.28026 31.5116 0
1 74.709 99.1864 0
1 25.4204 24.2891 0
1 29.1565 58.8092 0
1 33.2888 0.0423464 0
1 41.3831 4.2752 0
1 36.1938 11.934 0
1 91.1074 46.4439 0
1 0.405258 17.4816 0
1 7.76725 7.95865 0
1 14.6802 47.7989 0
1 66.3173 61.6308 0
1 17.9255 49.3738 0
1 97.7883 4.94853 0
1 84.697 59.7377 0
1 23.6743 96.0909 0
1 17.5058 19.8058 0
1 36.5113 7.92069 0
1 5.70144 34.9437 0
1 29.4126 98.8994 0
1 83.8062 79.461 0
1 98.7649 46.6779 0
1 35.3276 15.5014 0
1 38.7803 11.5841 0
1 88.8774 71.6805 0
1 79.8827 5.59217 0
1 90.7707 39.5298 0
